<?xml version="1.0" encoding="UTF-8"?>

<!-- generated on 2021-11-13 22:52:08 by Eclipse SUMO sumo Version 1.10.0
<configuration xmlns:xsi="http://www.w3.org/2001/XMLSchema-instance" xsi:noNamespaceSchemaLocation="http://sumo.dlr.de/xsd/sumoConfiguration.xsd">

    <input>
        <net-file value="sumo_data/road.net.xml"/>
        <route-files value="sumo_data/road.rou.xml"/>
    </input>

    <output>
        <tripinfo-output value="tripinfo.xml"/>
    </output>

    <time>
        <begin value="0"/>
        <step-length value="0.1"/>
    </time>

    <report>
        <verbose value="true"/>
        <no-step-log value="true"/>
    </report>

    <traci_server>
        <remote-port value="64384"/>
    </traci_server>

    <gui_only>
        <tracker-interval value="0.1"/>
    </gui_only>

</configuration>
-->

<tripinfos xmlns:xsi="http://www.w3.org/2001/XMLSchema-instance" xsi:noNamespaceSchemaLocation="http://sumo.dlr.de/xsd/tripinfo_file.xsd">
    <tripinfo id="car_0" depart="8.00" departLane="right1_0" departPos="5.10" departSpeed="0.00" departDelay="0.00" arrival="29.90" arrivalLane="right2_0" arrivalPos="10.00" arrivalSpeed="14.72" duration="21.90" routeLength="414.90" waitingTime="0.00" waitingCount="0" stopTime="0.00" timeLoss="0.89" rerouteNo="0" devices="tripinfo_car_0" vType="typecar" speedFactor="1.06" vaporized=""/>
    <tripinfo id="car_1" depart="9.20" departLane="right1_0" departPos="5.10" departSpeed="0.00" departDelay="0.20" arrival="32.50" arrivalLane="right2_0" arrivalPos="10.00" arrivalSpeed="13.03" duration="23.30" routeLength="414.90" waitingTime="0.00" waitingCount="0" stopTime="0.00" timeLoss="0.83" rerouteNo="0" devices="tripinfo_car_1" vType="typecar" speedFactor="0.94" vaporized=""/>
    <tripinfo id="car_2" depart="13.00" departLane="right1_0" departPos="5.10" departSpeed="0.00" departDelay="0.00" arrival="35.00" arrivalLane="right2_0" arrivalPos="10.00" arrivalSpeed="14.03" duration="22.00" routeLength="414.90" waitingTime="0.00" waitingCount="0" stopTime="0.00" timeLoss="0.88" rerouteNo="0" devices="tripinfo_car_2" vType="typecar" speedFactor="1.01" vaporized=""/>
    <tripinfo id="car_3" depart="19.00" departLane="right1_0" departPos="5.10" departSpeed="0.00" departDelay="0.00" arrival="40.90" arrivalLane="right2_0" arrivalPos="10.00" arrivalSpeed="15.04" duration="21.90" routeLength="414.90" waitingTime="0.00" waitingCount="0" stopTime="0.00" timeLoss="0.90" rerouteNo="0" devices="tripinfo_car_3" vType="typecar" speedFactor="1.08" vaporized=""/>
    <tripinfo id="car_4" depart="20.20" departLane="right1_0" departPos="5.10" departSpeed="0.00" departDelay="0.20" arrival="42.50" arrivalLane="right2_0" arrivalPos="10.00" arrivalSpeed="14.31" duration="22.30" routeLength="414.90" waitingTime="0.00" waitingCount="0" stopTime="0.00" timeLoss="1.18" rerouteNo="0" devices="tripinfo_car_4" vType="typecar" speedFactor="1.03" vaporized=""/>
    <tripinfo id="car_5" depart="26.00" departLane="right1_0" departPos="5.10" departSpeed="0.00" departDelay="0.00" arrival="52.10" arrivalLane="right2_0" arrivalPos="10.00" arrivalSpeed="11.54" duration="26.10" routeLength="414.90" waitingTime="0.00" waitingCount="0" stopTime="0.00" timeLoss="0.69" rerouteNo="0" devices="tripinfo_car_5" vType="typecar" speedFactor="0.83" vaporized=""/>
    <tripinfo id="car_6" depart="35.00" departLane="right1_0" departPos="5.10" departSpeed="0.00" departDelay="0.00" arrival="57.00" arrivalLane="right2_0" arrivalPos="10.00" arrivalSpeed="14.53" duration="22.00" routeLength="414.90" waitingTime="0.00" waitingCount="0" stopTime="0.00" timeLoss="0.89" rerouteNo="0" devices="tripinfo_car_6" vType="typecar" speedFactor="1.05" vaporized=""/>
    <tripinfo id="car_7" depart="56.00" departLane="right1_0" departPos="5.10" departSpeed="0.00" departDelay="0.00" arrival="80.60" arrivalLane="right2_0" arrivalPos="10.00" arrivalSpeed="12.31" duration="24.60" routeLength="414.90" waitingTime="0.00" waitingCount="0" stopTime="0.00" timeLoss="0.75" rerouteNo="0" devices="tripinfo_car_7" vType="typecar" speedFactor="0.89" vaporized=""/>
    <tripinfo id="car_8" depart="71.00" departLane="right1_0" departPos="5.10" departSpeed="0.00" departDelay="0.00" arrival="94.30" arrivalLane="right2_0" arrivalPos="10.00" arrivalSpeed="13.03" duration="23.30" routeLength="414.90" waitingTime="0.00" waitingCount="0" stopTime="0.00" timeLoss="0.81" rerouteNo="0" devices="tripinfo_car_8" vType="typecar" speedFactor="0.94" vaporized=""/>
    <tripinfo id="car_9" depart="72.20" departLane="right1_0" departPos="5.10" departSpeed="0.00" departDelay="0.20" arrival="97.60" arrivalLane="right2_0" arrivalPos="10.00" arrivalSpeed="11.90" duration="25.40" routeLength="414.90" waitingTime="0.00" waitingCount="0" stopTime="0.00" timeLoss="0.73" rerouteNo="0" devices="tripinfo_car_9" vType="typecar" speedFactor="0.86" vaporized=""/>
    <tripinfo id="car_10" depart="91.00" departLane="right1_0" departPos="5.10" departSpeed="0.00" departDelay="0.00" arrival="112.90" arrivalLane="right2_0" arrivalPos="10.00" arrivalSpeed="15.15" duration="21.90" routeLength="414.90" waitingTime="0.00" waitingCount="0" stopTime="0.00" timeLoss="0.90" rerouteNo="0" devices="tripinfo_car_10" vType="typecar" speedFactor="1.09" vaporized=""/>
    <tripinfo id="car_11" depart="100.00" departLane="right1_0" departPos="5.10" departSpeed="0.00" departDelay="0.00" arrival="122.00" arrivalLane="right2_0" arrivalPos="10.00" arrivalSpeed="14.26" duration="22.00" routeLength="414.90" waitingTime="0.00" waitingCount="0" stopTime="0.00" timeLoss="0.89" rerouteNo="0" devices="tripinfo_car_11" vType="typecar" speedFactor="1.03" vaporized=""/>
    <tripinfo id="car_12" depart="112.00" departLane="right1_0" departPos="5.10" departSpeed="0.00" departDelay="0.00" arrival="134.00" arrivalLane="right2_0" arrivalPos="10.00" arrivalSpeed="14.54" duration="22.00" routeLength="414.90" waitingTime="0.00" waitingCount="0" stopTime="0.00" timeLoss="0.89" rerouteNo="0" devices="tripinfo_car_12" vType="typecar" speedFactor="1.05" vaporized=""/>
    <tripinfo id="car_13" depart="123.00" departLane="right1_0" departPos="5.10" departSpeed="0.00" departDelay="0.00" arrival="144.90" arrivalLane="right2_0" arrivalPos="10.00" arrivalSpeed="15.60" duration="21.90" routeLength="414.90" waitingTime="0.00" waitingCount="0" stopTime="0.00" timeLoss="0.90" rerouteNo="0" devices="tripinfo_car_13" vType="typecar" speedFactor="1.12" vaporized=""/>
    <tripinfo id="car_14" depart="124.20" departLane="right1_0" departPos="5.10" departSpeed="0.00" departDelay="0.20" arrival="146.60" arrivalLane="right2_0" arrivalPos="10.00" arrivalSpeed="13.77" duration="22.40" routeLength="414.90" waitingTime="0.00" waitingCount="0" stopTime="0.00" timeLoss="1.04" rerouteNo="0" devices="tripinfo_car_14" vType="typecar" speedFactor="0.99" vaporized=""/>
    <tripinfo id="car_15" depart="125.40" departLane="right1_0" departPos="5.10" departSpeed="0.00" departDelay="0.40" arrival="149.10" arrivalLane="right2_0" arrivalPos="10.00" arrivalSpeed="12.87" duration="23.70" routeLength="414.90" waitingTime="0.00" waitingCount="0" stopTime="0.00" timeLoss="0.88" rerouteNo="0" devices="tripinfo_car_15" vType="typecar" speedFactor="0.93" vaporized=""/>
    <tripinfo id="car_16" depart="131.00" departLane="right1_0" departPos="5.10" departSpeed="0.00" departDelay="0.00" arrival="155.80" arrivalLane="right2_0" arrivalPos="10.00" arrivalSpeed="12.20" duration="24.80" routeLength="414.90" waitingTime="0.00" waitingCount="0" stopTime="0.00" timeLoss="0.74" rerouteNo="0" devices="tripinfo_car_16" vType="typecar" speedFactor="0.88" vaporized=""/>
    <tripinfo id="car_17" depart="140.00" departLane="right1_0" departPos="5.10" departSpeed="0.00" departDelay="0.00" arrival="163.20" arrivalLane="right2_0" arrivalPos="10.00" arrivalSpeed="13.08" duration="23.20" routeLength="414.90" waitingTime="0.00" waitingCount="0" stopTime="0.00" timeLoss="0.82" rerouteNo="0" devices="tripinfo_car_17" vType="typecar" speedFactor="0.94" vaporized=""/>
    <tripinfo id="car_18" depart="150.00" departLane="right1_0" departPos="5.10" departSpeed="0.00" departDelay="0.00" arrival="173.40" arrivalLane="right2_0" arrivalPos="10.00" arrivalSpeed="13.00" duration="23.40" routeLength="414.90" waitingTime="0.00" waitingCount="0" stopTime="0.00" timeLoss="0.81" rerouteNo="0" devices="tripinfo_car_18" vType="typecar" speedFactor="0.94" vaporized=""/>
    <tripinfo id="car_19" depart="151.20" departLane="right1_0" departPos="5.10" departSpeed="0.00" departDelay="0.20" arrival="174.80" arrivalLane="right2_0" arrivalPos="10.00" arrivalSpeed="16.09" duration="23.60" routeLength="414.90" waitingTime="0.00" waitingCount="0" stopTime="0.00" timeLoss="2.60" rerouteNo="0" devices="tripinfo_car_19" vType="typecar" speedFactor="1.16" vaporized=""/>
    <tripinfo id="car_20" depart="168.00" departLane="right1_0" departPos="5.10" departSpeed="0.00" departDelay="0.00" arrival="190.00" arrivalLane="right2_0" arrivalPos="10.00" arrivalSpeed="14.14" duration="22.00" routeLength="414.90" waitingTime="0.00" waitingCount="0" stopTime="0.00" timeLoss="0.89" rerouteNo="0" devices="tripinfo_car_20" vType="typecar" speedFactor="1.02" vaporized=""/>
    <tripinfo id="car_21" depart="179.00" departLane="right1_0" departPos="5.10" departSpeed="0.00" departDelay="0.00" arrival="201.00" arrivalLane="right2_0" arrivalPos="10.00" arrivalSpeed="14.03" duration="22.00" routeLength="414.90" waitingTime="0.00" waitingCount="0" stopTime="0.00" timeLoss="0.88" rerouteNo="0" devices="tripinfo_car_21" vType="typecar" speedFactor="1.01" vaporized=""/>
    <tripinfo id="car_22" depart="181.00" departLane="right1_0" departPos="5.10" departSpeed="0.00" departDelay="0.00" arrival="203.50" arrivalLane="right2_0" arrivalPos="10.00" arrivalSpeed="13.54" duration="22.50" routeLength="414.90" waitingTime="0.00" waitingCount="0" stopTime="0.00" timeLoss="0.85" rerouteNo="0" devices="tripinfo_car_22" vType="typecar" speedFactor="0.98" vaporized=""/>
    <tripinfo id="car_23" depart="203.00" departLane="right1_0" departPos="5.10" departSpeed="0.00" departDelay="0.00" arrival="227.50" arrivalLane="right2_0" arrivalPos="10.00" arrivalSpeed="12.36" duration="24.50" routeLength="414.90" waitingTime="0.00" waitingCount="0" stopTime="0.00" timeLoss="0.76" rerouteNo="0" devices="tripinfo_car_23" vType="typecar" speedFactor="0.89" vaporized=""/>
    <tripinfo id="car_24" depart="220.00" departLane="right1_0" departPos="5.10" departSpeed="0.00" departDelay="0.00" arrival="246.20" arrivalLane="right2_0" arrivalPos="10.00" arrivalSpeed="11.47" duration="26.20" routeLength="414.90" waitingTime="0.00" waitingCount="0" stopTime="0.00" timeLoss="0.68" rerouteNo="0" devices="tripinfo_car_24" vType="typecar" speedFactor="0.83" vaporized=""/>
    <tripinfo id="car_25" depart="237.00" departLane="right1_0" departPos="5.10" departSpeed="0.00" departDelay="0.00" arrival="261.90" arrivalLane="right2_0" arrivalPos="10.00" arrivalSpeed="12.12" duration="24.90" routeLength="414.90" waitingTime="0.00" waitingCount="0" stopTime="0.00" timeLoss="0.74" rerouteNo="0" devices="tripinfo_car_25" vType="typecar" speedFactor="0.87" vaporized=""/>
    <tripinfo id="car_26" depart="238.20" departLane="right1_0" departPos="5.10" departSpeed="0.00" departDelay="0.20" arrival="263.50" arrivalLane="right2_0" arrivalPos="10.00" arrivalSpeed="12.74" duration="25.30" routeLength="414.90" waitingTime="0.00" waitingCount="0" stopTime="0.00" timeLoss="2.26" rerouteNo="0" devices="tripinfo_car_26" vType="typecar" speedFactor="0.92" vaporized=""/>
    <tripinfo id="car_27" depart="248.00" departLane="right1_0" departPos="5.10" departSpeed="0.00" departDelay="0.00" arrival="271.10" arrivalLane="right2_0" arrivalPos="10.00" arrivalSpeed="13.18" duration="23.10" routeLength="414.90" waitingTime="0.00" waitingCount="0" stopTime="0.00" timeLoss="0.82" rerouteNo="0" devices="tripinfo_car_27" vType="typecar" speedFactor="0.95" vaporized=""/>
    <tripinfo id="car_28" depart="257.00" departLane="right1_0" departPos="5.10" departSpeed="0.00" departDelay="0.00" arrival="278.90" arrivalLane="right2_0" arrivalPos="10.00" arrivalSpeed="15.72" duration="21.90" routeLength="414.90" waitingTime="0.00" waitingCount="0" stopTime="0.00" timeLoss="0.90" rerouteNo="0" devices="tripinfo_car_28" vType="typecar" speedFactor="1.13" vaporized=""/>
    <tripinfo id="car_29" depart="259.00" departLane="right1_0" departPos="5.10" departSpeed="0.00" departDelay="0.00" arrival="282.50" arrivalLane="right2_0" arrivalPos="10.00" arrivalSpeed="12.94" duration="23.50" routeLength="414.90" waitingTime="0.00" waitingCount="0" stopTime="0.00" timeLoss="0.81" rerouteNo="0" devices="tripinfo_car_29" vType="typecar" speedFactor="0.93" vaporized=""/>
    <tripinfo id="car_30" depart="262.00" departLane="right1_0" departPos="5.10" departSpeed="0.00" departDelay="0.00" arrival="284.00" arrivalLane="right2_0" arrivalPos="10.00" arrivalSpeed="16.37" duration="22.00" routeLength="414.90" waitingTime="0.00" waitingCount="0" stopTime="0.00" timeLoss="1.02" rerouteNo="0" devices="tripinfo_car_30" vType="typecar" speedFactor="1.18" vaporized=""/>
    <tripinfo id="car_31" depart="280.00" departLane="right1_0" departPos="5.10" departSpeed="0.00" departDelay="0.00" arrival="301.90" arrivalLane="right2_0" arrivalPos="10.00" arrivalSpeed="16.04" duration="21.90" routeLength="414.90" waitingTime="0.00" waitingCount="0" stopTime="0.00" timeLoss="0.90" rerouteNo="0" devices="tripinfo_car_31" vType="typecar" speedFactor="1.15" vaporized=""/>
    <tripinfo id="car_32" depart="281.20" departLane="right1_0" departPos="5.10" departSpeed="0.00" departDelay="0.20" arrival="303.50" arrivalLane="right2_0" arrivalPos="10.00" arrivalSpeed="13.96" duration="22.30" routeLength="414.90" waitingTime="0.00" waitingCount="0" stopTime="0.00" timeLoss="1.16" rerouteNo="0" devices="tripinfo_car_32" vType="typecar" speedFactor="1.01" vaporized=""/>
    <tripinfo id="car_33" depart="287.00" departLane="right1_0" departPos="5.10" departSpeed="0.00" departDelay="0.00" arrival="308.90" arrivalLane="right2_0" arrivalPos="10.00" arrivalSpeed="16.28" duration="21.90" routeLength="414.90" waitingTime="0.00" waitingCount="0" stopTime="0.00" timeLoss="0.91" rerouteNo="0" devices="tripinfo_car_33" vType="typecar" speedFactor="1.17" vaporized=""/>
    <tripinfo id="car_34" depart="302.00" departLane="right1_0" departPos="5.10" departSpeed="0.00" departDelay="0.00" arrival="324.10" arrivalLane="right2_0" arrivalPos="10.00" arrivalSpeed="13.82" duration="22.10" routeLength="414.90" waitingTime="0.00" waitingCount="0" stopTime="0.00" timeLoss="0.88" rerouteNo="0" devices="tripinfo_car_34" vType="typecar" speedFactor="0.99" vaporized=""/>
    <tripinfo id="car_35" depart="321.00" departLane="right1_0" departPos="5.10" departSpeed="0.00" departDelay="0.00" arrival="343.00" arrivalLane="right2_0" arrivalPos="10.00" arrivalSpeed="14.16" duration="22.00" routeLength="414.90" waitingTime="0.00" waitingCount="0" stopTime="0.00" timeLoss="0.89" rerouteNo="0" devices="tripinfo_car_35" vType="typecar" speedFactor="1.02" vaporized=""/>
    <tripinfo id="car_36" depart="323.00" departLane="right1_0" departPos="5.10" departSpeed="0.00" departDelay="0.00" arrival="345.60" arrivalLane="right2_0" arrivalPos="10.00" arrivalSpeed="13.52" duration="22.60" routeLength="414.90" waitingTime="0.00" waitingCount="0" stopTime="0.00" timeLoss="0.85" rerouteNo="0" devices="tripinfo_car_36" vType="typecar" speedFactor="0.97" vaporized=""/>
    <tripinfo id="car_37" depart="325.00" departLane="right1_0" departPos="5.10" departSpeed="0.00" departDelay="0.00" arrival="347.00" arrivalLane="right2_0" arrivalPos="10.00" arrivalSpeed="16.39" duration="22.00" routeLength="414.90" waitingTime="0.00" waitingCount="0" stopTime="0.00" timeLoss="1.06" rerouteNo="0" devices="tripinfo_car_37" vType="typecar" speedFactor="1.18" vaporized=""/>
    <tripinfo id="car_38" depart="326.20" departLane="right1_0" departPos="5.10" departSpeed="0.00" departDelay="0.20" arrival="348.50" arrivalLane="right2_0" arrivalPos="10.00" arrivalSpeed="15.31" duration="22.30" routeLength="414.90" waitingTime="0.00" waitingCount="0" stopTime="0.00" timeLoss="1.29" rerouteNo="0" devices="tripinfo_car_38" vType="typecar" speedFactor="1.10" vaporized=""/>
    <tripinfo id="car_39" depart="335.00" departLane="right1_0" departPos="5.10" departSpeed="0.00" departDelay="0.00" arrival="359.20" arrivalLane="right2_0" arrivalPos="10.00" arrivalSpeed="12.51" duration="24.20" routeLength="414.90" waitingTime="0.00" waitingCount="0" stopTime="0.00" timeLoss="0.77" rerouteNo="0" devices="tripinfo_car_39" vType="typecar" speedFactor="0.90" vaporized=""/>
    <tripinfo id="car_40" depart="349.00" departLane="right1_0" departPos="5.10" departSpeed="0.00" departDelay="0.00" arrival="371.00" arrivalLane="right2_0" arrivalPos="10.00" arrivalSpeed="14.31" duration="22.00" routeLength="414.90" waitingTime="0.00" waitingCount="0" stopTime="0.00" timeLoss="0.89" rerouteNo="0" devices="tripinfo_car_40" vType="typecar" speedFactor="1.03" vaporized=""/>
    <tripinfo id="car_41" depart="363.00" departLane="right1_0" departPos="5.10" departSpeed="0.00" departDelay="0.00" arrival="385.90" arrivalLane="right2_0" arrivalPos="10.00" arrivalSpeed="13.29" duration="22.90" routeLength="414.90" waitingTime="0.00" waitingCount="0" stopTime="0.00" timeLoss="0.85" rerouteNo="0" devices="tripinfo_car_41" vType="typecar" speedFactor="0.96" vaporized=""/>
    <tripinfo id="car_42" depart="373.00" departLane="right1_0" departPos="5.10" departSpeed="0.00" departDelay="0.00" arrival="394.90" arrivalLane="right2_0" arrivalPos="10.00" arrivalSpeed="15.17" duration="21.90" routeLength="414.90" waitingTime="0.00" waitingCount="0" stopTime="0.00" timeLoss="0.90" rerouteNo="0" devices="tripinfo_car_42" vType="typecar" speedFactor="1.09" vaporized=""/>
    <tripinfo id="car_43" depart="377.00" departLane="right1_0" departPos="5.10" departSpeed="0.00" departDelay="0.00" arrival="399.00" arrivalLane="right2_0" arrivalPos="10.00" arrivalSpeed="14.41" duration="22.00" routeLength="414.90" waitingTime="0.00" waitingCount="0" stopTime="0.00" timeLoss="0.89" rerouteNo="0" devices="tripinfo_car_43" vType="typecar" speedFactor="1.04" vaporized=""/>
    <tripinfo id="car_44" depart="387.00" departLane="right1_0" departPos="5.10" departSpeed="0.00" departDelay="0.00" arrival="409.00" arrivalLane="right2_0" arrivalPos="10.00" arrivalSpeed="14.49" duration="22.00" routeLength="414.90" waitingTime="0.00" waitingCount="0" stopTime="0.00" timeLoss="0.89" rerouteNo="0" devices="tripinfo_car_44" vType="typecar" speedFactor="1.04" vaporized=""/>
    <tripinfo id="car_45" depart="404.00" departLane="right1_0" departPos="5.10" departSpeed="0.00" departDelay="0.00" arrival="425.90" arrivalLane="right2_0" arrivalPos="10.00" arrivalSpeed="15.11" duration="21.90" routeLength="414.90" waitingTime="0.00" waitingCount="0" stopTime="0.00" timeLoss="0.90" rerouteNo="0" devices="tripinfo_car_45" vType="typecar" speedFactor="1.09" vaporized=""/>
    <tripinfo id="car_46" depart="405.20" departLane="right1_0" departPos="5.10" departSpeed="0.00" departDelay="0.20" arrival="427.50" arrivalLane="right2_0" arrivalPos="10.00" arrivalSpeed="13.85" duration="22.30" routeLength="414.90" waitingTime="0.00" waitingCount="0" stopTime="0.00" timeLoss="1.13" rerouteNo="0" devices="tripinfo_car_46" vType="typecar" speedFactor="1.00" vaporized=""/>
    <tripinfo id="car_47" depart="427.00" departLane="right1_0" departPos="5.10" departSpeed="0.00" departDelay="0.00" arrival="451.20" arrivalLane="right2_0" arrivalPos="10.00" arrivalSpeed="12.51" duration="24.20" routeLength="414.90" waitingTime="0.00" waitingCount="0" stopTime="0.00" timeLoss="0.77" rerouteNo="0" devices="tripinfo_car_47" vType="typecar" speedFactor="0.90" vaporized=""/>
    <tripinfo id="car_48" depart="434.00" departLane="right1_0" departPos="5.10" departSpeed="0.00" departDelay="0.00" arrival="458.80" arrivalLane="right2_0" arrivalPos="10.00" arrivalSpeed="12.18" duration="24.80" routeLength="414.90" waitingTime="0.00" waitingCount="0" stopTime="0.00" timeLoss="0.74" rerouteNo="0" devices="tripinfo_car_48" vType="typecar" speedFactor="0.88" vaporized=""/>
    <tripinfo id="car_49" depart="464.00" departLane="right1_0" departPos="5.10" departSpeed="0.00" departDelay="0.00" arrival="489.50" arrivalLane="right2_0" arrivalPos="10.00" arrivalSpeed="11.81" duration="25.50" routeLength="414.90" waitingTime="0.00" waitingCount="0" stopTime="0.00" timeLoss="0.71" rerouteNo="0" devices="tripinfo_car_49" vType="typecar" speedFactor="0.85" vaporized=""/>
    <tripinfo id="car_50" depart="467.00" departLane="right1_0" departPos="5.10" departSpeed="0.00" departDelay="0.00" arrival="492.40" arrivalLane="right2_0" arrivalPos="10.00" arrivalSpeed="11.87" duration="25.40" routeLength="414.90" waitingTime="0.00" waitingCount="0" stopTime="0.00" timeLoss="0.72" rerouteNo="0" devices="tripinfo_car_50" vType="typecar" speedFactor="0.85" vaporized=""/>
    <tripinfo id="car_51" depart="503.00" departLane="right1_0" departPos="5.10" departSpeed="0.00" departDelay="0.00" arrival="524.90" arrivalLane="right2_0" arrivalPos="10.00" arrivalSpeed="16.24" duration="21.90" routeLength="414.90" waitingTime="0.00" waitingCount="0" stopTime="0.00" timeLoss="0.91" rerouteNo="0" devices="tripinfo_car_51" vType="typecar" speedFactor="1.17" vaporized=""/>
    <tripinfo id="car_52" depart="514.00" departLane="right1_0" departPos="5.10" departSpeed="0.00" departDelay="0.00" arrival="536.00" arrivalLane="right2_0" arrivalPos="10.00" arrivalSpeed="14.12" duration="22.00" routeLength="414.90" waitingTime="0.00" waitingCount="0" stopTime="0.00" timeLoss="0.89" rerouteNo="0" devices="tripinfo_car_52" vType="typecar" speedFactor="1.02" vaporized=""/>
    <tripinfo id="car_53" depart="531.00" departLane="right1_0" departPos="5.10" departSpeed="0.00" departDelay="0.00" arrival="552.90" arrivalLane="right2_0" arrivalPos="10.00" arrivalSpeed="15.22" duration="21.90" routeLength="414.90" waitingTime="0.00" waitingCount="0" stopTime="0.00" timeLoss="0.90" rerouteNo="0" devices="tripinfo_car_53" vType="typecar" speedFactor="1.10" vaporized=""/>
    <tripinfo id="car_54" depart="563.00" departLane="right1_0" departPos="5.10" departSpeed="0.00" departDelay="0.00" arrival="585.00" arrivalLane="right2_0" arrivalPos="10.00" arrivalSpeed="13.93" duration="22.00" routeLength="414.90" waitingTime="0.00" waitingCount="0" stopTime="0.00" timeLoss="0.88" rerouteNo="0" devices="tripinfo_car_54" vType="typecar" speedFactor="1.00" vaporized=""/>
    <tripinfo id="car_55" depart="569.00" departLane="right1_0" departPos="5.10" departSpeed="0.00" departDelay="0.00" arrival="591.10" arrivalLane="right2_0" arrivalPos="10.00" arrivalSpeed="13.83" duration="22.10" routeLength="414.90" waitingTime="0.00" waitingCount="0" stopTime="0.00" timeLoss="0.88" rerouteNo="0" devices="tripinfo_car_55" vType="typecar" speedFactor="1.00" vaporized=""/>
    <tripinfo id="car_56" depart="580.00" departLane="right1_0" departPos="5.10" departSpeed="0.00" departDelay="0.00" arrival="604.20" arrivalLane="right2_0" arrivalPos="10.00" arrivalSpeed="12.49" duration="24.20" routeLength="414.90" waitingTime="0.00" waitingCount="0" stopTime="0.00" timeLoss="0.77" rerouteNo="0" devices="tripinfo_car_56" vType="typecar" speedFactor="0.90" vaporized=""/>
    <tripinfo id="car_57" depart="602.00" departLane="right1_0" departPos="5.10" departSpeed="0.00" departDelay="0.00" arrival="623.90" arrivalLane="right2_0" arrivalPos="10.00" arrivalSpeed="15.87" duration="21.90" routeLength="414.90" waitingTime="0.00" waitingCount="0" stopTime="0.00" timeLoss="0.90" rerouteNo="0" devices="tripinfo_car_57" vType="typecar" speedFactor="1.14" vaporized=""/>
    <tripinfo id="car_58" depart="631.00" departLane="right1_0" departPos="5.10" departSpeed="0.00" departDelay="0.00" arrival="653.00" arrivalLane="right2_0" arrivalPos="10.00" arrivalSpeed="14.22" duration="22.00" routeLength="414.90" waitingTime="0.00" waitingCount="0" stopTime="0.00" timeLoss="0.89" rerouteNo="0" devices="tripinfo_car_58" vType="typecar" speedFactor="1.02" vaporized=""/>
    <tripinfo id="car_59" depart="633.00" departLane="right1_0" departPos="5.10" departSpeed="0.00" departDelay="0.00" arrival="655.60" arrivalLane="right2_0" arrivalPos="10.00" arrivalSpeed="13.47" duration="22.60" routeLength="414.90" waitingTime="0.00" waitingCount="0" stopTime="0.00" timeLoss="0.85" rerouteNo="0" devices="tripinfo_car_59" vType="typecar" speedFactor="0.97" vaporized=""/>
    <tripinfo id="car_60" depart="637.00" departLane="right1_0" departPos="5.10" departSpeed="0.00" departDelay="0.00" arrival="658.90" arrivalLane="right2_0" arrivalPos="10.00" arrivalSpeed="15.04" duration="21.90" routeLength="414.90" waitingTime="0.00" waitingCount="0" stopTime="0.00" timeLoss="0.90" rerouteNo="0" devices="tripinfo_car_60" vType="typecar" speedFactor="1.08" vaporized=""/>
    <tripinfo id="car_61" depart="646.00" departLane="right1_0" departPos="5.10" departSpeed="0.00" departDelay="0.00" arrival="667.90" arrivalLane="right2_0" arrivalPos="10.00" arrivalSpeed="15.55" duration="21.90" routeLength="414.90" waitingTime="0.00" waitingCount="0" stopTime="0.00" timeLoss="0.90" rerouteNo="0" devices="tripinfo_car_61" vType="typecar" speedFactor="1.12" vaporized=""/>
    <tripinfo id="car_62" depart="661.00" departLane="right1_0" departPos="5.10" departSpeed="0.00" departDelay="0.00" arrival="683.00" arrivalLane="right2_0" arrivalPos="10.00" arrivalSpeed="14.11" duration="22.00" routeLength="414.90" waitingTime="0.00" waitingCount="0" stopTime="0.00" timeLoss="0.89" rerouteNo="0" devices="tripinfo_car_62" vType="typecar" speedFactor="1.02" vaporized=""/>
    <tripinfo id="car_63" depart="673.00" departLane="right1_0" departPos="5.10" departSpeed="0.00" departDelay="0.00" arrival="695.30" arrivalLane="right2_0" arrivalPos="10.00" arrivalSpeed="13.71" duration="22.30" routeLength="414.90" waitingTime="0.00" waitingCount="0" stopTime="0.00" timeLoss="0.89" rerouteNo="0" devices="tripinfo_car_63" vType="typecar" speedFactor="0.99" vaporized=""/>
    <tripinfo id="car_64" depart="676.00" departLane="right1_0" departPos="5.10" departSpeed="0.00" departDelay="0.00" arrival="699.30" arrivalLane="right2_0" arrivalPos="10.00" arrivalSpeed="13.02" duration="23.30" routeLength="414.90" waitingTime="0.00" waitingCount="0" stopTime="0.00" timeLoss="0.81" rerouteNo="0" devices="tripinfo_car_64" vType="typecar" speedFactor="0.94" vaporized=""/>
    <tripinfo id="car_65" depart="682.00" departLane="right1_0" departPos="5.10" departSpeed="0.00" departDelay="0.00" arrival="706.70" arrivalLane="right2_0" arrivalPos="10.00" arrivalSpeed="12.26" duration="24.70" routeLength="414.90" waitingTime="0.00" waitingCount="0" stopTime="0.00" timeLoss="0.75" rerouteNo="0" devices="tripinfo_car_65" vType="typecar" speedFactor="0.88" vaporized=""/>
    <tripinfo id="car_66" depart="683.20" departLane="right1_0" departPos="5.10" departSpeed="0.00" departDelay="0.20" arrival="708.20" arrivalLane="right2_0" arrivalPos="10.00" arrivalSpeed="12.60" duration="25.00" routeLength="414.90" waitingTime="0.00" waitingCount="0" stopTime="0.00" timeLoss="1.77" rerouteNo="0" devices="tripinfo_car_66" vType="typecar" speedFactor="0.91" vaporized=""/>
    <tripinfo id="car_67" depart="685.00" departLane="right1_0" departPos="5.10" departSpeed="0.00" departDelay="0.00" arrival="709.80" arrivalLane="right2_0" arrivalPos="10.00" arrivalSpeed="12.70" duration="24.80" routeLength="414.90" waitingTime="0.00" waitingCount="0" stopTime="0.00" timeLoss="1.69" rerouteNo="0" devices="tripinfo_car_67" vType="typecar" speedFactor="0.91" vaporized=""/>
    <tripinfo id="car_68" depart="688.00" departLane="right1_0" departPos="5.10" departSpeed="0.00" departDelay="0.00" arrival="711.20" arrivalLane="right2_0" arrivalPos="10.00" arrivalSpeed="14.44" duration="23.20" routeLength="414.90" waitingTime="0.00" waitingCount="0" stopTime="0.00" timeLoss="2.13" rerouteNo="0" devices="tripinfo_car_68" vType="typecar" speedFactor="1.04" vaporized=""/>
    <tripinfo id="car_69" depart="689.20" departLane="right1_0" departPos="5.10" departSpeed="0.00" departDelay="0.20" arrival="712.70" arrivalLane="right2_0" arrivalPos="10.00" arrivalSpeed="14.20" duration="23.50" routeLength="414.90" waitingTime="0.00" waitingCount="0" stopTime="0.00" timeLoss="2.37" rerouteNo="0" devices="tripinfo_car_69" vType="typecar" speedFactor="1.02" vaporized=""/>
    <tripinfo id="car_70" depart="700.00" departLane="right1_0" departPos="5.10" departSpeed="0.00" departDelay="0.00" arrival="722.00" arrivalLane="right2_0" arrivalPos="10.00" arrivalSpeed="14.21" duration="22.00" routeLength="414.90" waitingTime="0.00" waitingCount="0" stopTime="0.00" timeLoss="0.89" rerouteNo="0" devices="tripinfo_car_70" vType="typecar" speedFactor="1.02" vaporized=""/>
    <tripinfo id="car_71" depart="707.00" departLane="right1_0" departPos="5.10" departSpeed="0.00" departDelay="0.00" arrival="729.60" arrivalLane="right2_0" arrivalPos="10.00" arrivalSpeed="13.51" duration="22.60" routeLength="414.90" waitingTime="0.00" waitingCount="0" stopTime="0.00" timeLoss="0.85" rerouteNo="0" devices="tripinfo_car_71" vType="typecar" speedFactor="0.97" vaporized=""/>
    <tripinfo id="car_72" depart="724.00" departLane="right1_0" departPos="5.10" departSpeed="0.00" departDelay="0.00" arrival="747.30" arrivalLane="right2_0" arrivalPos="10.00" arrivalSpeed="13.06" duration="23.30" routeLength="414.90" waitingTime="0.00" waitingCount="0" stopTime="0.00" timeLoss="0.81" rerouteNo="0" devices="tripinfo_car_72" vType="typecar" speedFactor="0.94" vaporized=""/>